d 0.101541 50 51 tcp 1510 ----E-N 0 0.0 51.0 1468861 1885
d 0.101553 50 51 tcp 1510 ----E-N 0 0.0 51.0 1484921 1907
d 0.101565 50 51 tcp 1510 ----E-N 0 0.0 51.0 1500981 1929
d 0.101577 50 51 tcp 1510 ----E-N 0 0.0 51.0 1517041 1951
d 0.101589 50 51 tcp 1510 ----E-N 0 0.0 51.0 1533101 1973
d 0.101601 50 51 tcp 1510 ----E-N 0 0.0 51.0 1549161 1995
d 0.101613 50 51 tcp 1510 ----E-N 0 0.0 51.0 1565221 2017
d 0.101625 50 51 tcp 1510 ----E-N 0 0.0 51.0 1581281 2039
d 0.101637 50 51 tcp 1510 ----E-N 0 0.0 51.0 1597341 2061
d 0.101649 50 51 tcp 1510 ----E-N 0 0.0 51.0 1613401 2083
d 0.101661 50 51 tcp 1510 ----E-N 0 0.0 51.0 1629461 2105
d 0.101674 50 51 tcp 1510 ----E-N 0 0.0 51.0 1645521 2127
d 0.101686 50 51 tcp 1510 ----E-N 0 0.0 51.0 1661581 2149
d 0.101698 50 51 tcp 1510 ----E-N 0 0.0 51.0 1677641 2171
d 0.10171 50 51 tcp 1510 ----E-N 0 0.0 51.0 1693701 2193
d 0.101722 50 51 tcp 1510 ----E-N 0 0.0 51.0 1709761 2215
d 0.101734 50 51 tcp 1510 ----E-N 0 0.0 51.0 1725821 2237
d 0.101746 50 51 tcp 1510 ----E-N 0 0.0 51.0 1741881 2259
d 0.101758 50 51 tcp 1510 ----E-N 0 0.0 51.0 1757941 2281
d 0.10177 50 51 tcp 1510 ----E-N 0 0.0 51.0 1774001 2303
d 0.101782 50 51 tcp 1510 ----E-N 0 0.0 51.0 1790061 2325
d 0.101794 50 51 tcp 1510 ----E-N 0 0.0 51.0 1806121 2347
d 0.101806 50 51 tcp 1510 ----E-N 0 0.0 51.0 1822181 2369
d 0.101818 50 51 tcp 1510 ----E-N 0 0.0 51.0 1838241 2391
d 0.101831 50 51 tcp 1510 ----E-N 0 0.0 51.0 1854301 2412
d 0.101843 50 51 tcp 1510 ----E-N 0 0.0 51.0 1870361 2453
d 0.101855 50 51 tcp 1510 ----E-N 0 0.0 51.0 1886421 2475
d 0.101867 50 51 tcp 1510 ----E-N 0 0.0 51.0 1902481 2497
d 0.101879 50 51 tcp 1510 ----E-N 0 0.0 51.0 1918541 2519
d 0.101891 50 51 tcp 1510 ----E-N 0 0.0 51.0 1934601 2541
d 0.101903 50 51 tcp 1510 ----E-N 0 0.0 51.0 1950661 2563
d 0.101915 50 51 tcp 1510 ----E-N 0 0.0 51.0 1966721 2585
d 0.101927 50 51 tcp 1510 ----E-N 0 0.0 51.0 1982781 2607
d 0.101939 50 51 tcp 1510 ----E-N 0 0.0 51.0 1998841 2629
d 0.101951 50 51 tcp 1510 ----E-N 0 0.0 51.0 2014901 2651
d 0.101963 50 51 tcp 1510 ----E-N 0 0.0 51.0 2030961 2673
d 0.101976 50 51 tcp 1510 ----E-N 0 0.0 51.0 2047021 2695
d 0.102229 50 51 tcp 1510 ----E-N 0 0.0 51.0 2301061 3296
d 0.102241 50 51 tcp 1510 ----E-N 0 0.0 51.0 2317121 3316
d 0.102253 50 51 tcp 1510 ----E-N 0 0.0 51.0 2333181 3337
d 0.102265 50 51 tcp 1510 ----E-N 0 0.0 51.0 2349241 3358
d 0.102277 50 51 tcp 1510 ----E-N 0 0.0 51.0 2365301 3379
d 0.10229 50 51 tcp 1510 ----E-N 0 0.0 51.0 2381361 3400
d 0.102302 50 51 tcp 1510 ----E-N 0 0.0 51.0 2397421 3421
d 0.102314 50 51 tcp 1510 ----E-N 0 0.0 51.0 2413481 3442
d 0.102326 50 51 tcp 1510 ----E-N 0 0.0 51.0 2429541 3463
d 0.102338 50 51 tcp 1510 ----E-N 0 0.0 51.0 2445601 3484
d 0.10235 50 51 tcp 1510 ----E-N 0 0.0 51.0 2461661 3505
d 0.102362 50 51 tcp 1510 ----E-N 0 0.0 51.0 2477721 3526
d 0.102374 50 51 tcp 1510 ----E-N 0 0.0 51.0 2493781 3547
d 0.102386 50 51 tcp 1510 ----E-N 0 0.0 51.0 2509841 3568
d 0.102398 50 51 tcp 1510 ---AE-N 0 0.0 51.0 2525901 3603
d 0.10241 50 51 tcp 1510 ----E-N 0 0.0 51.0 2541961 3625
d 0.102422 50 51 tcp 1510 ----E-N 0 0.0 51.0 2558021 3647
d 0.102435 50 51 tcp 1510 ---AE-N 0 0.0 51.0 2301061 3670
